,Number,PubChem ID,CAS,Family,Solvent,Solvent Alternative Name,BP,FP,Worst H3xx,Worst H4xx,Safety,Health,Env,Ranking Default,Ranking Discussion,Replacement Issues,Replacement 1,Replacement 2,Replacement 1 Number,Replacement 2 Number,graph,H3_phrase,H4_phrase
26,27,8900,142-82-5,Hydrocarbons,Heptane,Heptane,98,-4,H304,H410,6,2,7,Problematic,Problematic,,,,,,"{""data"": [{""hovertemplate"": ""r=%{r}<br>theta=%{theta}<extra></extra>"", ""legendgroup"": """", ""line"": {""color"": ""#636efa"", ""dash"": ""solid""}, ""marker"": {""symbol"": ""circle""}, ""mode"": ""lines"", ""name"": """", ""r"": [6, 2, 7, 6], ""showlegend"": false, ""subplot"": ""polar"", ""theta"": [""S"", ""H"", ""E"", ""S""], ""type"": ""scatterpolar"", ""fill"": ""toself""}], ""layout"": {""template"": {""data"": {""histogram2dcontour"": [{""type"": ""histogram2dcontour"", ""colorbar"": {""outlinewidth"": 0, ""ticks"": """"}, ""colorscale"": [[0.0, ""#0d0887""], [0.1111111111111111, ""#46039f""], [0.2222222222222222, ""#7201a8""], [0.3333333333333333, ""#9c179e""], [0.4444444444444444, ""#bd3786""], [0.5555555555555556, ""#d8576b""], [0.6666666666666666, ""#ed7953""], [0.7777777777777778, ""#fb9f3a""], [0.8888888888888888, ""#fdca26""], [1.0, ""#f0f921""]]}], ""choropleth"": [{""type"": ""choropleth"", ""colorbar"": {""outlinewidth"": 0, ""ticks"": """"}}], ""histogram2d"": [{""type"": ""histogram2d"", ""colorbar"": {""outlinewidth"": 0, ""ticks"": """"}, ""colorscale"": [[0.0, ""#0d0887""], [0.1111111111111111, ""#46039f""], [0.2222222222222222, ""#7201a8""], [0.3333333333333333, ""#9c179e""], [0.4444444444444444, ""#bd3786""], [0.5555555555555556, ""#d8576b""], [0.6666666666666666, ""#ed7953""], [0.7777777777777778, ""#fb9f3a""], [0.8888888888888888, ""#fdca26""], [1.0, ""#f0f921""]]}], ""heatmap"": [{""type"": ""heatmap"", ""colorbar"": {""outlinewidth"": 0, ""ticks"": """"}, ""colorscale"": [[0.0, ""#0d0887""], [0.1111111111111111, ""#46039f""], [0.2222222222222222, ""#7201a8""], [0.3333333333333333, ""#9c179e""], [0.4444444444444444, ""#bd3786""], [0.5555555555555556, ""#d8576b""], [0.6666666666666666, ""#ed7953""], [0.7777777777777778, ""#fb9f3a""], [0.8888888888888888, ""#fdca26""], [1.0, ""#f0f921""]]}], ""heatmapgl"": [{""type"": ""heatmapgl"", ""colorbar"": {""outlinewidth"": 0, ""ticks"": """"}, ""colorscale"": [[0.0, ""#0d0887""], [0.1111111111111111, ""#46039f""], [0.2222222222222222, ""#7201a8""], [0.3333333333333333, ""#9c179e""], [0.4444444444444444, ""#bd3786""], [0.5555555555555556, ""#d8576b""], [0.6666666666666666, ""#ed7953""], [0.7777777777777778, ""#fb9f3a""], [0.8888888888888888, ""#fdca26""], [1.0, ""#f0f921""]]}], ""contourcarpet"": [{""type"": ""contourcarpet"", ""colorbar"": {""outlinewidth"": 0, ""ticks"": """"}}], ""contour"": [{""type"": ""contour"", ""colorbar"": {""outlinewidth"": 0, ""ticks"": """"}, ""colorscale"": [[0.0, ""#0d0887""], [0.1111111111111111, ""#46039f""], [0.2222222222222222, ""#7201a8""], [0.3333333333333333, ""#9c179e""], [0.4444444444444444, ""#bd3786""], [0.5555555555555556, ""#d8576b""], [0.6666666666666666, ""#ed7953""], [0.7777777777777778, ""#fb9f3a""], [0.8888888888888888, ""#fdca26""], [1.0, ""#f0f921""]]}], ""surface"": [{""type"": ""surface"", ""colorbar"": {""outlinewidth"": 0, ""ticks"": """"}, ""colorscale"": [[0.0, ""#0d0887""], [0.1111111111111111, ""#46039f""], [0.2222222222222222, ""#7201a8""], [0.3333333333333333, ""#9c179e""], [0.4444444444444444, ""#bd3786""], [0.5555555555555556, ""#d8576b""], [0.6666666666666666, ""#ed7953""], [0.7777777777777778, ""#fb9f3a""], [0.8888888888888888, ""#fdca26""], [1.0, ""#f0f921""]]}], ""mesh3d"": [{""type"": ""mesh3d"", ""colorbar"": {""outlinewidth"": 0, ""ticks"": """"}}], ""scatter"": [{""fillpattern"": {""fillmode"": ""overlay"", ""size"": 10, ""solidity"": 0.2}, ""type"": ""scatter""}], ""parcoords"": [{""type"": ""parcoords"", ""line"": {""colorbar"": {""outlinewidth"": 0, ""ticks"": """"}}}], ""scatterpolargl"": [{""type"": ""scatterpolargl"", ""marker"": {""colorbar"": {""outlinewidth"": 0, ""ticks"": """"}}}], ""bar"": [{""error_x"": {""color"": ""#2a3f5f""}, ""error_y"": {""color"": ""#2a3f5f""}, ""marker"": {""line"": {""color"": ""#E5ECF6"", ""width"": 0.5}, ""pattern"": {""fillmode"": ""overlay"", ""size"": 10, ""solidity"": 0.2}}, ""type"": ""bar""}], ""scattergeo"": [{""type"": ""scattergeo"", ""marker"": {""colorbar"": {""outlinewidth"": 0, ""ticks"": """"}}}], ""scatterpolar"": [{""type"": ""scatterpolar"", ""marker"": {""colorbar"": {""outlinewidth"": 0, ""ticks"": """"}}}], ""histogram"": [{""marker"": {""pattern"": {""fillmode"": ""overlay"", ""size"": 10, ""solidity"": 0.2}}, ""type"": ""histogram""}], ""scattergl"": [{""type"": ""scattergl"", ""marker"": {""colorbar"": {""outlinewidth"": 0, ""ticks"": """"}}}], ""scatter3d"": [{""type"": ""scatter3d"", ""line"": {""colorbar"": {""outlinewidth"": 0, ""ticks"": """"}}, ""marker"": {""colorbar"": {""outlinewidth"": 0, ""ticks"": """"}}}], ""scattermapbox"": [{""type"": ""scattermapbox"", ""marker"": {""colorbar"": {""outlinewidth"": 0, ""ticks"": """"}}}], ""scatterternary"": [{""type"": ""scatterternary"", ""marker"": {""colorbar"": {""outlinewidth"": 0, ""ticks"": """"}}}], ""scattercarpet"": [{""type"": ""scattercarpet"", ""marker"": {""colorbar"": {""outlinewidth"": 0, ""ticks"": """"}}}], ""carpet"": [{""aaxis"": {""endlinecolor"": ""#2a3f5f"", ""gridcolor"": ""white"", ""linecolor"": ""white"", ""minorgridcolor"": ""white"", ""startlinecolor"": ""#2a3f5f""}, ""baxis"": {""endlinecolor"": ""#2a3f5f"", ""gridcolor"": ""white"", ""linecolor"": ""white"", ""minorgridcolor"": ""white"", ""startlinecolor"": ""#2a3f5f""}, ""type"": ""carpet""}], ""table"": [{""cells"": {""fill"": {""color"": ""#EBF0F8""}, ""line"": {""color"": ""white""}}, ""header"": {""fill"": {""color"": ""#C8D4E3""}, ""line"": {""color"": ""white""}}, ""type"": ""table""}], ""barpolar"": [{""marker"": {""line"": {""color"": ""#E5ECF6"", ""width"": 0.5}, ""pattern"": {""fillmode"": ""overlay"", ""size"": 10, ""solidity"": 0.2}}, ""type"": ""barpolar""}], ""pie"": [{""automargin"": true, ""type"": ""pie""}]}, ""layout"": {""autotypenumbers"": ""strict"", ""colorway"": [""#636efa"", ""#EF553B"", ""#00cc96"", ""#ab63fa"", ""#FFA15A"", ""#19d3f3"", ""#FF6692"", ""#B6E880"", ""#FF97FF"", ""#FECB52""], ""font"": {""color"": ""#2a3f5f""}, ""hovermode"": ""closest"", ""hoverlabel"": {""align"": ""left""}, ""paper_bgcolor"": ""white"", ""plot_bgcolor"": ""#E5ECF6"", ""polar"": {""bgcolor"": ""#E5ECF6"", ""angularaxis"": {""gridcolor"": ""white"", ""linecolor"": ""white"", ""ticks"": """"}, ""radialaxis"": {""gridcolor"": ""white"", ""linecolor"": ""white"", ""ticks"": """"}}, ""ternary"": {""bgcolor"": ""#E5ECF6"", ""aaxis"": {""gridcolor"": ""white"", ""linecolor"": ""white"", ""ticks"": """"}, ""baxis"": {""gridcolor"": ""white"", ""linecolor"": ""white"", ""ticks"": """"}, ""caxis"": {""gridcolor"": ""white"", ""linecolor"": ""white"", ""ticks"": """"}}, ""coloraxis"": {""colorbar"": {""outlinewidth"": 0, ""ticks"": """"}}, ""colorscale"": {""sequential"": [[0.0, ""#0d0887""], [0.1111111111111111, ""#46039f""], [0.2222222222222222, ""#7201a8""], [0.3333333333333333, ""#9c179e""], [0.4444444444444444, ""#bd3786""], [0.5555555555555556, ""#d8576b""], [0.6666666666666666, ""#ed7953""], [0.7777777777777778, ""#fb9f3a""], [0.8888888888888888, ""#fdca26""], [1.0, ""#f0f921""]], ""sequentialminus"": [[0.0, ""#0d0887""], [0.1111111111111111, ""#46039f""], [0.2222222222222222, ""#7201a8""], [0.3333333333333333, ""#9c179e""], [0.4444444444444444, ""#bd3786""], [0.5555555555555556, ""#d8576b""], [0.6666666666666666, ""#ed7953""], [0.7777777777777778, ""#fb9f3a""], [0.8888888888888888, ""#fdca26""], [1.0, ""#f0f921""]], ""diverging"": [[0, ""#8e0152""], [0.1, ""#c51b7d""], [0.2, ""#de77ae""], [0.3, ""#f1b6da""], [0.4, ""#fde0ef""], [0.5, ""#f7f7f7""], [0.6, ""#e6f5d0""], [0.7, ""#b8e186""], [0.8, ""#7fbc41""], [0.9, ""#4d9221""], [1, ""#276419""]]}, ""xaxis"": {""gridcolor"": ""white"", ""linecolor"": ""white"", ""ticks"": """", ""title"": {""standoff"": 15}, ""zerolinecolor"": ""white"", ""automargin"": true, ""zerolinewidth"": 2}, ""yaxis"": {""gridcolor"": ""white"", ""linecolor"": ""white"", ""ticks"": """", ""title"": {""standoff"": 15}, ""zerolinecolor"": ""white"", ""automargin"": true, ""zerolinewidth"": 2}, ""scene"": {""xaxis"": {""backgroundcolor"": ""#E5ECF6"", ""gridcolor"": ""white"", ""linecolor"": ""white"", ""showbackground"": true, ""ticks"": """", ""zerolinecolor"": ""white"", ""gridwidth"": 2}, ""yaxis"": {""backgroundcolor"": ""#E5ECF6"", ""gridcolor"": ""white"", ""linecolor"": ""white"", ""showbackground"": true, ""ticks"": """", ""zerolinecolor"": ""white"", ""gridwidth"": 2}, ""zaxis"": {""backgroundcolor"": ""#E5ECF6"", ""gridcolor"": ""white"", ""linecolor"": ""white"", ""showbackground"": true, ""ticks"": """", ""zerolinecolor"": ""white"", ""gridwidth"": 2}}, ""shapedefaults"": {""line"": {""color"": ""#2a3f5f""}}, ""annotationdefaults"": {""arrowcolor"": ""#2a3f5f"", ""arrowhead"": 0, ""arrowwidth"": 1}, ""geo"": {""bgcolor"": ""white"", ""landcolor"": ""#E5ECF6"", ""subunitcolor"": ""white"", ""showland"": true, ""showlakes"": true, ""lakecolor"": ""white""}, ""title"": {""x"": 0.05}, ""mapbox"": {""style"": ""light""}}}, ""polar"": {""domain"": {""x"": [0.0, 1.0], ""y"": [0.0, 1.0]}, ""angularaxis"": {""direction"": ""clockwise"", ""rotation"": 90}, ""radialaxis"": {""range"": [0, 10]}}, ""legend"": {""tracegroupgap"": 0}, ""margin"": {""t"": 40, ""l"": 20, ""r"": 20, ""b"": 20}, ""xaxis"": {""range"": [0, 5]}, ""height"": 250, ""width"": 250}}",May be fatal if swallowed and enters airways,Very toxic to aquatic life with long lasting effects
27,45,12679,680-31-9,Aprotic polar,Hexamethylphosphoramide,HMPA,>200,144,H350,None,1,9,7,Hazardous,Highly Hazardous,,,,,,"{""data"": [{""hovertemplate"": ""r=%{r}<br>theta=%{theta}<extra></extra>"", ""legendgroup"": """", ""line"": {""color"": ""#636efa"", ""dash"": ""solid""}, ""marker"": {""symbol"": ""circle""}, ""mode"": ""lines"", ""name"": """", ""r"": [1, 9, 7, 1], ""showlegend"": false, ""subplot"": ""polar"", ""theta"": [""S"", ""H"", ""E"", ""S""], ""type"": ""scatterpolar"", ""fill"": ""toself""}], ""layout"": {""template"": {""data"": {""histogram2dcontour"": [{""type"": ""histogram2dcontour"", ""colorbar"": {""outlinewidth"": 0, ""ticks"": """"}, ""colorscale"": [[0.0, ""#0d0887""], [0.1111111111111111, ""#46039f""], [0.2222222222222222, ""#7201a8""], [0.3333333333333333, ""#9c179e""], [0.4444444444444444, ""#bd3786""], [0.5555555555555556, ""#d8576b""], [0.6666666666666666, ""#ed7953""], [0.7777777777777778, ""#fb9f3a""], [0.8888888888888888, ""#fdca26""], [1.0, ""#f0f921""]]}], ""choropleth"": [{""type"": ""choropleth"", ""colorbar"": {""outlinewidth"": 0, ""ticks"": """"}}], ""histogram2d"": [{""type"": ""histogram2d"", ""colorbar"": {""outlinewidth"": 0, ""ticks"": """"}, ""colorscale"": [[0.0, ""#0d0887""], [0.1111111111111111, ""#46039f""], [0.2222222222222222, ""#7201a8""], [0.3333333333333333, ""#9c179e""], [0.4444444444444444, ""#bd3786""], [0.5555555555555556, ""#d8576b""], [0.6666666666666666, ""#ed7953""], [0.7777777777777778, ""#fb9f3a""], [0.8888888888888888, ""#fdca26""], [1.0, ""#f0f921""]]}], ""heatmap"": [{""type"": ""heatmap"", ""colorbar"": {""outlinewidth"": 0, ""ticks"": """"}, ""colorscale"": [[0.0, ""#0d0887""], [0.1111111111111111, ""#46039f""], [0.2222222222222222, ""#7201a8""], [0.3333333333333333, ""#9c179e""], [0.4444444444444444, ""#bd3786""], [0.5555555555555556, ""#d8576b""], [0.6666666666666666, ""#ed7953""], [0.7777777777777778, ""#fb9f3a""], [0.8888888888888888, ""#fdca26""], [1.0, ""#f0f921""]]}], ""heatmapgl"": [{""type"": ""heatmapgl"", ""colorbar"": {""outlinewidth"": 0, ""ticks"": """"}, ""colorscale"": [[0.0, ""#0d0887""], [0.1111111111111111, ""#46039f""], [0.2222222222222222, ""#7201a8""], [0.3333333333333333, ""#9c179e""], [0.4444444444444444, ""#bd3786""], [0.5555555555555556, ""#d8576b""], [0.6666666666666666, ""#ed7953""], [0.7777777777777778, ""#fb9f3a""], [0.8888888888888888, ""#fdca26""], [1.0, ""#f0f921""]]}], ""contourcarpet"": [{""type"": ""contourcarpet"", ""colorbar"": {""outlinewidth"": 0, ""ticks"": """"}}], ""contour"": [{""type"": ""contour"", ""colorbar"": {""outlinewidth"": 0, ""ticks"": """"}, ""colorscale"": [[0.0, ""#0d0887""], [0.1111111111111111, ""#46039f""], [0.2222222222222222, ""#7201a8""], [0.3333333333333333, ""#9c179e""], [0.4444444444444444, ""#bd3786""], [0.5555555555555556, ""#d8576b""], [0.6666666666666666, ""#ed7953""], [0.7777777777777778, ""#fb9f3a""], [0.8888888888888888, ""#fdca26""], [1.0, ""#f0f921""]]}], ""surface"": [{""type"": ""surface"", ""colorbar"": {""outlinewidth"": 0, ""ticks"": """"}, ""colorscale"": [[0.0, ""#0d0887""], [0.1111111111111111, ""#46039f""], [0.2222222222222222, ""#7201a8""], [0.3333333333333333, ""#9c179e""], [0.4444444444444444, ""#bd3786""], [0.5555555555555556, ""#d8576b""], [0.6666666666666666, ""#ed7953""], [0.7777777777777778, ""#fb9f3a""], [0.8888888888888888, ""#fdca26""], [1.0, ""#f0f921""]]}], ""mesh3d"": [{""type"": ""mesh3d"", ""colorbar"": {""outlinewidth"": 0, ""ticks"": """"}}], ""scatter"": [{""fillpattern"": {""fillmode"": ""overlay"", ""size"": 10, ""solidity"": 0.2}, ""type"": ""scatter""}], ""parcoords"": [{""type"": ""parcoords"", ""line"": {""colorbar"": {""outlinewidth"": 0, ""ticks"": """"}}}], ""scatterpolargl"": [{""type"": ""scatterpolargl"", ""marker"": {""colorbar"": {""outlinewidth"": 0, ""ticks"": """"}}}], ""bar"": [{""error_x"": {""color"": ""#2a3f5f""}, ""error_y"": {""color"": ""#2a3f5f""}, ""marker"": {""line"": {""color"": ""#E5ECF6"", ""width"": 0.5}, ""pattern"": {""fillmode"": ""overlay"", ""size"": 10, ""solidity"": 0.2}}, ""type"": ""bar""}], ""scattergeo"": [{""type"": ""scattergeo"", ""marker"": {""colorbar"": {""outlinewidth"": 0, ""ticks"": """"}}}], ""scatterpolar"": [{""type"": ""scatterpolar"", ""marker"": {""colorbar"": {""outlinewidth"": 0, ""ticks"": """"}}}], ""histogram"": [{""marker"": {""pattern"": {""fillmode"": ""overlay"", ""size"": 10, ""solidity"": 0.2}}, ""type"": ""histogram""}], ""scattergl"": [{""type"": ""scattergl"", ""marker"": {""colorbar"": {""outlinewidth"": 0, ""ticks"": """"}}}], ""scatter3d"": [{""type"": ""scatter3d"", ""line"": {""colorbar"": {""outlinewidth"": 0, ""ticks"": """"}}, ""marker"": {""colorbar"": {""outlinewidth"": 0, ""ticks"": """"}}}], ""scattermapbox"": [{""type"": ""scattermapbox"", ""marker"": {""colorbar"": {""outlinewidth"": 0, ""ticks"": """"}}}], ""scatterternary"": [{""type"": ""scatterternary"", ""marker"": {""colorbar"": {""outlinewidth"": 0, ""ticks"": """"}}}], ""scattercarpet"": [{""type"": ""scattercarpet"", ""marker"": {""colorbar"": {""outlinewidth"": 0, ""ticks"": """"}}}], ""carpet"": [{""aaxis"": {""endlinecolor"": ""#2a3f5f"", ""gridcolor"": ""white"", ""linecolor"": ""white"", ""minorgridcolor"": ""white"", ""startlinecolor"": ""#2a3f5f""}, ""baxis"": {""endlinecolor"": ""#2a3f5f"", ""gridcolor"": ""white"", ""linecolor"": ""white"", ""minorgridcolor"": ""white"", ""startlinecolor"": ""#2a3f5f""}, ""type"": ""carpet""}], ""table"": [{""cells"": {""fill"": {""color"": ""#EBF0F8""}, ""line"": {""color"": ""white""}}, ""header"": {""fill"": {""color"": ""#C8D4E3""}, ""line"": {""color"": ""white""}}, ""type"": ""table""}], ""barpolar"": [{""marker"": {""line"": {""color"": ""#E5ECF6"", ""width"": 0.5}, ""pattern"": {""fillmode"": ""overlay"", ""size"": 10, ""solidity"": 0.2}}, ""type"": ""barpolar""}], ""pie"": [{""automargin"": true, ""type"": ""pie""}]}, ""layout"": {""autotypenumbers"": ""strict"", ""colorway"": [""#636efa"", ""#EF553B"", ""#00cc96"", ""#ab63fa"", ""#FFA15A"", ""#19d3f3"", ""#FF6692"", ""#B6E880"", ""#FF97FF"", ""#FECB52""], ""font"": {""color"": ""#2a3f5f""}, ""hovermode"": ""closest"", ""hoverlabel"": {""align"": ""left""}, ""paper_bgcolor"": ""white"", ""plot_bgcolor"": ""#E5ECF6"", ""polar"": {""bgcolor"": ""#E5ECF6"", ""angularaxis"": {""gridcolor"": ""white"", ""linecolor"": ""white"", ""ticks"": """"}, ""radialaxis"": {""gridcolor"": ""white"", ""linecolor"": ""white"", ""ticks"": """"}}, ""ternary"": {""bgcolor"": ""#E5ECF6"", ""aaxis"": {""gridcolor"": ""white"", ""linecolor"": ""white"", ""ticks"": """"}, ""baxis"": {""gridcolor"": ""white"", ""linecolor"": ""white"", ""ticks"": """"}, ""caxis"": {""gridcolor"": ""white"", ""linecolor"": ""white"", ""ticks"": """"}}, ""coloraxis"": {""colorbar"": {""outlinewidth"": 0, ""ticks"": """"}}, ""colorscale"": {""sequential"": [[0.0, ""#0d0887""], [0.1111111111111111, ""#46039f""], [0.2222222222222222, ""#7201a8""], [0.3333333333333333, ""#9c179e""], [0.4444444444444444, ""#bd3786""], [0.5555555555555556, ""#d8576b""], [0.6666666666666666, ""#ed7953""], [0.7777777777777778, ""#fb9f3a""], [0.8888888888888888, ""#fdca26""], [1.0, ""#f0f921""]], ""sequentialminus"": [[0.0, ""#0d0887""], [0.1111111111111111, ""#46039f""], [0.2222222222222222, ""#7201a8""], [0.3333333333333333, ""#9c179e""], [0.4444444444444444, ""#bd3786""], [0.5555555555555556, ""#d8576b""], [0.6666666666666666, ""#ed7953""], [0.7777777777777778, ""#fb9f3a""], [0.8888888888888888, ""#fdca26""], [1.0, ""#f0f921""]], ""diverging"": [[0, ""#8e0152""], [0.1, ""#c51b7d""], [0.2, ""#de77ae""], [0.3, ""#f1b6da""], [0.4, ""#fde0ef""], [0.5, ""#f7f7f7""], [0.6, ""#e6f5d0""], [0.7, ""#b8e186""], [0.8, ""#7fbc41""], [0.9, ""#4d9221""], [1, ""#276419""]]}, ""xaxis"": {""gridcolor"": ""white"", ""linecolor"": ""white"", ""ticks"": """", ""title"": {""standoff"": 15}, ""zerolinecolor"": ""white"", ""automargin"": true, ""zerolinewidth"": 2}, ""yaxis"": {""gridcolor"": ""white"", ""linecolor"": ""white"", ""ticks"": """", ""title"": {""standoff"": 15}, ""zerolinecolor"": ""white"", ""automargin"": true, ""zerolinewidth"": 2}, ""scene"": {""xaxis"": {""backgroundcolor"": ""#E5ECF6"", ""gridcolor"": ""white"", ""linecolor"": ""white"", ""showbackground"": true, ""ticks"": """", ""zerolinecolor"": ""white"", ""gridwidth"": 2}, ""yaxis"": {""backgroundcolor"": ""#E5ECF6"", ""gridcolor"": ""white"", ""linecolor"": ""white"", ""showbackground"": true, ""ticks"": """", ""zerolinecolor"": ""white"", ""gridwidth"": 2}, ""zaxis"": {""backgroundcolor"": ""#E5ECF6"", ""gridcolor"": ""white"", ""linecolor"": ""white"", ""showbackground"": true, ""ticks"": """", ""zerolinecolor"": ""white"", ""gridwidth"": 2}}, ""shapedefaults"": {""line"": {""color"": ""#2a3f5f""}}, ""annotationdefaults"": {""arrowcolor"": ""#2a3f5f"", ""arrowhead"": 0, ""arrowwidth"": 1}, ""geo"": {""bgcolor"": ""white"", ""landcolor"": ""#E5ECF6"", ""subunitcolor"": ""white"", ""showland"": true, ""showlakes"": true, ""lakecolor"": ""white""}, ""title"": {""x"": 0.05}, ""mapbox"": {""style"": ""light""}}}, ""polar"": {""domain"": {""x"": [0.0, 1.0], ""y"": [0.0, 1.0]}, ""angularaxis"": {""direction"": ""clockwise"", ""rotation"": 90}, ""radialaxis"": {""range"": [0, 10]}}, ""legend"": {""tracegroupgap"": 0}, ""margin"": {""t"": 40, ""l"": 20, ""r"": 20, ""b"": 20}, ""xaxis"": {""range"": [0, 5]}, ""height"": 250, ""width"": 250}}",May cause cancer,